HEADER
"PSFversion" "1.00"
"simulator" "spectre"
"version" "21.1.0.612.isr15"
"date" "3:05:37 PM, Sun May 14, 2023"
"design" "// Voltage divider with sinusoidal input"
"analysis type" "tran"
"analysis name" "tran1"
"analysis description" "Transient Analysis `tran1': time = (0 s -> 16 us)"
"xVecSorted" "ascending"
"tolerance.relative" 0.00100000
"start" 0.00000
"outputstart" 0.00000
"stop" 1.60000e-05
"step" 1.60000e-08
"istep" 0.00100000
"maxstep" 3.20000e-07
"ic" "all"
"useprevic" "no"
"skipdc" "no"
"reltol" 0.00100000
"abstol(V)" 1.00000e-06
"abstol(I)" 1.00000e-12
"temp" 27.0000
"tnom" 27.0000
"tempeffects" "all"
"errpreset" "moderate"
"method" "traponly"
"lteratio" 3.50000
"relref" "sigglobal"
"cmin" 0.00000
"gmin" 1.00000e-12
TYPE
"sweep" FLOAT DOUBLE PROP(
"key" "sweep"
)
"LogicV" FLOAT DOUBLE PROP(
"key" "node"
)
"V" FLOAT DOUBLE PROP(
"units" "V"
"key" "node"
"tolerance" 1.00000e-06
)
"I" FLOAT DOUBLE PROP(
"units" "A"
"key" "branch"
"tolerance" 1.00000e-12
)
"MMF" FLOAT DOUBLE PROP(
"units" "A*turn"
"key" "node"
"tolerance" 1.00000e-12
)
"Wb" FLOAT DOUBLE PROP(
"units" "Wb"
"key" "node"
"tolerance" 1.00000e-09
)
"Temp" FLOAT DOUBLE PROP(
"units" "C"
"key" "node"
"tolerance" 0.000100000
)
"Pwr" FLOAT DOUBLE PROP(
"units" "W"
"key" "node"
"tolerance" 1.00000e-09
)
"U" FLOAT DOUBLE PROP(
"units" ""
"key" "node"
"tolerance" 1.00000e-06
)
"V/Sec" FLOAT DOUBLE PROP(
"units" "V/s"
"key" "node"
"tolerance" 0.000100000
)
"I/Sec" FLOAT DOUBLE PROP(
"units" "A/s"
"key" "node"
"tolerance" 1.00000e-06
)
"1/Sec" FLOAT DOUBLE PROP(
"units" "1/s"
"key" "node"
"tolerance" 0.000100000
)
"HOD" FLOAT DOUBLE PROP(
"units" ""
"key" "node"
"tolerance" 0.0100000
)
"Q" FLOAT DOUBLE PROP(
"units" "Coul"
"key" "node"
"tolerance" 1.00000e-15
)
SWEEP
"time" "sweep" PROP(
"sweep_direction" 0
"units" "s"
"plot" 0
"grid" 1
)
TRACE
"out" "V"
"vin" "V"
"Vvin:p" "I"
VALUE
"time" 0.000000000000000e+00
"out" 5.000000000000000e-01
"vin" 1.000000000000000e+00
"Vvin:p" -5.000000000000000e-04
"time" 1.000000000000000e-09
"out" 1.025122182687981e+00
"vin" 2.763355756877419e+00
"Vvin:p" -1.738233574189438e-03
"time" 2.000000000000000e-09
"out" 1.673484195333932e+00
"vin" 3.853169548885460e+00
"Vvin:p" -2.179685353551529e-03
"time" 3.000000000000000e-09
"out" 1.931063023644114e+00
"vin" 3.853169548885460e+00
"Vvin:p" -1.922106525241347e-03
"time" 4.000000000000000e-09
"out" 1.650753711072518e+00
"vin" 2.763355756877420e+00
"Vvin:p" -1.112602045804902e-03
"time" 5.000000000000000e-09
"out" 9.318370617512123e-01
"vin" 1.000000000000000e+00
"Vvin:p" -6.816293824878813e-05
"time" 6.000000000000000e-09
"out" 4.807794002060008e-02
"vin" -7.633557568774192e-01
"Vvin:p" 8.114336968980193e-04
"time" 7.000000000000000e-09
"out" -6.631688643339955e-01
"vin" -1.853169548885460e+00
"Vvin:p" 1.190000684551465e-03
"time" 8.000000000000000e-09
"out" -9.298645209087635e-01
"vin" -1.853169548885461e+00
"Vvin:p" 9.233050279766975e-04
"time" 9.000000000000001e-09
"out" -6.506205441019226e-01
"vin" -7.633557568774179e-01
"Vvin:p" 1.127352127754953e-04
"time" 1.000000000000000e-08
"out" 6.817773457885540e-02
"vin" 1.000000000000005e+00
"Vvin:p" -9.318222654211493e-04
"time" 1.100000000000000e-08
"out" 9.519237040160757e-01
"vin" 2.763355756877423e+00
"Vvin:p" -1.811432052861347e-03
"time" 1.200000000000000e-08
"out" 1.663169008682095e+00
"vin" 3.853169548885463e+00
"Vvin:p" -2.190000540203368e-03
"time" 1.300000000000000e-08
"out" 1.929864571960540e+00
"vin" 3.853169548885457e+00
"Vvin:p" -1.923304976924918e-03
"time" 1.400000000000000e-08
"out" 1.650620549774341e+00
"vin" 2.763355756877416e+00
"Vvin:p" -1.112735207103075e-03
"time" 1.500000000000001e-08
"out" 9.318222660514118e-01
"vin" 9.999999999999905e-01
"Vvin:p" -6.817773394857865e-05
"time" 1.600000000000000e-08
"out" 4.807629605395138e-02
"vin" -7.633557568774272e-01
"Vvin:p" 8.114320529313786e-04
"time" 1.700000000000000e-08
"out" -6.631690086759506e-01
"vin" -1.853169548885462e+00
"Vvin:p" 1.190000540209511e-03
"time" 1.800000000000000e-08
"out" -9.298645719583659e-01
"vin" -1.853169548885460e+00
"Vvin:p" 9.233049769270938e-04
"time" 1.900000000000000e-08
"out" -6.506205497741012e-01
"vin" -7.633557568774205e-01
"Vvin:p" 1.127352071033193e-04
"time" 2.000000000000000e-08
"out" 6.817773394861121e-02
"vin" 9.999999999999986e-01
"Vvin:p" -9.318222660513874e-04
"time" 2.100000000000000e-08
"out" 9.519237039460458e-01
"vin" 2.763355756877418e+00
"Vvin:p" -1.811432052931373e-03
"time" 2.200000000000000e-08
"out" 1.663169008675948e+00
"vin" 3.853169548885459e+00
"Vvin:p" -2.190000540209510e-03
"time" 2.300000000000000e-08
"out" 1.929864571958366e+00
"vin" 3.853169548885463e+00
"Vvin:p" -1.923304976927097e-03
"time" 2.400000000000000e-08
"out" 1.650620549774104e+00
"vin" 2.763355756877429e+00
"Vvin:p" -1.112735207103325e-03
"time" 2.500000000000000e-08
"out" 9.318222660513946e-01
"vin" 1.000000000000012e+00
"Vvin:p" -6.817773394861778e-05
"time" 2.599999999999999e-08
"out" 4.807629605395842e-02
"vin" -7.633557568774090e-01
"Vvin:p" 8.114320529313674e-04
"time" 2.699999999999999e-08
"out" -6.631690086759457e-01
"vin" -1.853169548885457e+00
"Vvin:p" 1.190000540209511e-03
"time" 2.799999999999999e-08
"out" -9.298645719583658e-01
"vin" -1.853169548885464e+00
"Vvin:p" 9.233049769270986e-04
"time" 2.899999999999999e-08
"out" -6.506205497741065e-01
"vin" -7.633557568774383e-01
"Vvin:p" 1.127352071033317e-04
"time" 2.999999999999999e-08
"out" 6.817773394860130e-02
"vin" 9.999999999999765e-01
"Vvin:p" -9.318222660513753e-04
"time" 3.099999999999999e-08
"out" 9.519237039460414e-01
"vin" 2.763355756877409e+00
"Vvin:p" -1.811432052931368e-03
"time" 3.200000000000000e-08
"out" 1.663169008675948e+00
"vin" 3.853169548885460e+00
"Vvin:p" -2.190000540209513e-03
"time" 3.300000000000000e-08
"out" 1.929864571958366e+00
"vin" 3.853169548885462e+00
"Vvin:p" -1.923304976927096e-03
"time" 3.400000000000000e-08
"out" 1.650620549774102e+00
"vin" 2.763355756877421e+00
"Vvin:p" -1.112735207103320e-03
"time" 3.500000000000000e-08
"out" 9.318222660513868e-01
"vin" 9.999999999999919e-01
"Vvin:p" -6.817773394860509e-05
"time" 3.600000000000000e-08
"out" 4.807629605394861e-02
"vin" -7.633557568774259e-01
"Vvin:p" 8.114320529313745e-04
"time" 3.700000000000001e-08
"out" -6.631690086759515e-01
"vin" -1.853169548885463e+00
"Vvin:p" 1.190000540209512e-03
"time" 3.800000000000001e-08
"out" -9.298645719583655e-01
"vin" -1.853169548885455e+00
"Vvin:p" 9.233049769270893e-04
"time" 3.900000000000001e-08
"out" -6.506205497740967e-01
"vin" -7.633557568774045e-01
"Vvin:p" 1.127352071033078e-04
"time" 4.000000000000001e-08
"out" 6.817773394862231e-02
"vin" 1.000000000000029e+00
"Vvin:p" -9.318222660514067e-04
"time" 4.100000000000002e-08
"out" 9.519237039460611e-01
"vin" 2.763355756877443e+00
"Vvin:p" -1.811432052931382e-03
"time" 4.200000000000002e-08
"out" 1.663169008675958e+00
"vin" 3.853169548885470e+00
"Vvin:p" -2.190000540209512e-03
"time" 4.300000000000002e-08
"out" 1.929864571958366e+00
"vin" 3.853169548885448e+00
"Vvin:p" -1.923304976927082e-03
"time" 4.400000000000002e-08
"out" 1.650620549774090e+00
"vin" 2.763355756877387e+00
"Vvin:p" -1.112735207103298e-03
"time" 4.500000000000003e-08
"out" 9.318222660513676e-01
"vin" 9.999999999999500e-01
"Vvin:p" -6.817773394858237e-05
"time" 4.600000000000003e-08
"out" 4.807629605392816e-02
"vin" -7.633557568774685e-01
"Vvin:p" 8.114320529313966e-04
"time" 4.700000000000003e-08
"out" -6.631690086759652e-01
"vin" -1.853169548885476e+00
"Vvin:p" 1.190000540209511e-03
"time" 4.800000000000003e-08
"out" -9.298645719583656e-01
"vin" -1.853169548885442e+00
"Vvin:p" 9.233049769270762e-04
"time" 4.900000000000004e-08
"out" -6.506205497740820e-01
"vin" -7.633557568773619e-01
"Vvin:p" 1.127352071032798e-04
"time" 5.000000000000004e-08
"out" 6.817773394864035e-02
"vin" 1.000000000000060e+00
"Vvin:p" -9.318222660514198e-04
"time" 5.100000000000004e-08
"out" 9.519237039460772e-01
"vin" 2.763355756877477e+00
"Vvin:p" -1.811432052931400e-03
"time" 5.200000000000004e-08
"out" 1.663169008675971e+00
"vin" 3.853169548885486e+00
"Vvin:p" -2.190000540209515e-03
"time" 5.300000000000004e-08
"out" 1.929864571958366e+00
"vin" 3.853169548885439e+00
"Vvin:p" -1.923304976927072e-03
"time" 5.400000000000005e-08
"out" 1.650620549774077e+00
"vin" 2.763355756877353e+00
"Vvin:p" -1.112735207103277e-03
"time" 5.500000000000005e-08
"out" 9.318222660513462e-01
"vin" 9.999999999999081e-01
"Vvin:p" -6.817773394856183e-05
"time" 5.600000000000005e-08
"out" 4.807629605391182e-02
"vin" -7.633557568774849e-01
"Vvin:p" 8.114320529313967e-04
"time" 5.700000000000005e-08
"out" -6.631690086759765e-01
"vin" -1.853169548885489e+00
"Vvin:p" 1.190000540209512e-03
"time" 5.800000000000006e-08
"out" -9.298645719583657e-01
"vin" -1.853169548885429e+00
"Vvin:p" 9.233049769270632e-04
"time" 5.900000000000006e-08
"out" -6.506205497740716e-01
"vin" -7.633557568773282e-01
"Vvin:p" 1.127352071032566e-04
"time" 6.000000000000006e-08
"out" 6.817773394866143e-02
"vin" 1.000000000000102e+00
"Vvin:p" -9.318222660514408e-04
"time" 6.100000000000006e-08
"out" 9.519237039460947e-01
"vin" 2.763355756877511e+00
"Vvin:p" -1.811432052931416e-03
"time" 6.200000000000005e-08
"out" 1.663169008675977e+00
"vin" 3.853169548885492e+00
"Vvin:p" -2.190000540209516e-03
"time" 6.300000000000005e-08
"out" 1.929864571958366e+00
"vin" 3.853169548885433e+00
"Vvin:p" -1.923304976927067e-03
"time" 6.400000000000004e-08
"out" 1.650620549774077e+00
"vin" 2.763355756877354e+00
"Vvin:p" -1.112735207103278e-03
"time" 6.500000000000004e-08
"out" 9.318222660513583e-01
"vin" 9.999999999999302e-01
"Vvin:p" -6.817773394857189e-05
"time" 6.600000000000004e-08
"out" 4.807629605392788e-02
"vin" -7.633557568774672e-01
"Vvin:p" 8.114320529313950e-04
"time" 6.700000000000003e-08
"out" -6.631690086759621e-01
"vin" -1.853169548885476e+00
"Vvin:p" 1.190000540209513e-03
"time" 6.800000000000003e-08
"out" -9.298645719583657e-01
"vin" -1.853169548885449e+00
"Vvin:p" 9.233049769270832e-04
"time" 6.900000000000002e-08
"out" -6.506205497740919e-01
"vin" -7.633557568773979e-01
"Vvin:p" 1.127352071033060e-04
"time" 7.000000000000002e-08
"out" 6.817773394862547e-02
"vin" 1.000000000000038e+00
"Vvin:p" -9.318222660514121e-04
"time" 7.100000000000001e-08
"out" 9.519237039460574e-01
"vin" 2.763355756877441e+00
"Vvin:p" -1.811432052931384e-03
"time" 7.200000000000001e-08
"out" 1.663169008675953e+00
"vin" 3.853169548885465e+00
"Vvin:p" -2.190000540209513e-03
"time" 7.300000000000001e-08
"out" 1.929864571958366e+00
"vin" 3.853169548885459e+00
"Vvin:p" -1.923304976927093e-03
"time" 7.400000000000000e-08
"out" 1.650620549774101e+00
"vin" 2.763355756877424e+00
"Vvin:p" -1.112735207103323e-03
"time" 7.500000000000000e-08
"out" 9.318222660513927e-01
"vin" 1.000000000000016e+00
"Vvin:p" -6.817773394862346e-05
"time" 7.599999999999999e-08
"out" 4.807629605395886e-02
"vin" -7.633557568774147e-01
"Vvin:p" 8.114320529313736e-04
"time" 7.699999999999999e-08
"out" -6.631690086759426e-01
"vin" -1.853169548885449e+00
"Vvin:p" 1.190000540209506e-03
"time" 7.799999999999998e-08
"out" -9.298645719583666e-01
"vin" -1.853169548885476e+00
"Vvin:p" 9.233049769271090e-04
"time" 7.899999999999998e-08
"out" -6.506205497741163e-01
"vin" -7.633557568774672e-01
"Vvin:p" 1.127352071033508e-04
"time" 7.999999999999998e-08
"out" 6.817773394858639e-02
"vin" 9.999999999999515e-01
"Vvin:p" -9.318222660513651e-04
"time" 8.099999999999997e-08
"out" 9.519237039460213e-01
"vin" 2.763355756877389e+00
"Vvin:p" -1.811432052931368e-03
"time" 8.199999999999997e-08
"out" 1.663169008675933e+00
"vin" 3.853169548885446e+00
"Vvin:p" -2.190000540209512e-03
"time" 8.299999999999996e-08
"out" 1.929864571958368e+00
"vin" 3.853169548885492e+00
"Vvin:p" -1.923304976927124e-03
"time" 8.399999999999996e-08
"out" 1.650620549774126e+00
"vin" 2.763355756877493e+00
"Vvin:p" -1.112735207103367e-03
"time" 8.499999999999995e-08
"out" 9.318222660514319e-01
"vin" 1.000000000000102e+00
"Vvin:p" -6.817773394867023e-05
"time" 8.599999999999995e-08
"out" 4.807629605400064e-02
"vin" -7.633557568773282e-01
"Vvin:p" 8.114320529313288e-04
"time" 8.699999999999995e-08
"out" -6.631690086759173e-01
"vin" -1.853169548885423e+00
"Vvin:p" 1.190000540209505e-03
"time" 8.799999999999994e-08
"out" -9.298645719583664e-01
"vin" -1.853169548885502e+00
"Vvin:p" 9.233049769271359e-04
"time" 8.899999999999994e-08
"out" -6.506205497741349e-01
"vin" -7.633557568775196e-01
"Vvin:p" 1.127352071033847e-04
"time" 8.999999999999993e-08
"out" 6.817773394855345e-02
"vin" 9.999999999998654e-01
"Vvin:p" -9.318222660513121e-04
"time" 9.099999999999993e-08
"out" 9.519237039459847e-01
"vin" 2.763355756877302e+00
"Vvin:p" -1.811432052931317e-03
"time" 9.199999999999992e-08
"out" 1.663169008675908e+00
"vin" 3.853169548885413e+00
"Vvin:p" -2.190000540209504e-03
"time" 9.299999999999992e-08
"out" 1.929864571958366e+00
"vin" 3.853169548885512e+00
"Vvin:p" -1.923304976927146e-03
"time" 9.399999999999992e-08
"out" 1.650620549774147e+00
"vin" 2.763355756877563e+00
"Vvin:p" -1.112735207103416e-03
"time" 9.499999999999991e-08
"out" 9.318222660514625e-01
"vin" 1.000000000000167e+00
"Vvin:p" -6.817773394870424e-05
"time" 9.599999999999991e-08
"out" 4.807629605403897e-02
"vin" -7.633557568772757e-01
"Vvin:p" 8.114320529313147e-04
"time" 9.699999999999990e-08
"out" -6.631690086758992e-01
"vin" -1.853169548885403e+00
"Vvin:p" 1.190000540209504e-03
"time" 9.799999999999990e-08
"out" -9.298645719583670e-01
"vin" -1.853169548885522e+00
"Vvin:p" 9.233049769271552e-04
"time" 9.899999999999989e-08
"out" -6.506205497741615e-01
"vin" -7.633557568775888e-01
"Vvin:p" 1.127352071034273e-04
"time" 9.999999999999989e-08
"out" 6.817773394851309e-02
"vin" 9.999999999998008e-01
"Vvin:p" -9.318222660512878e-04
"time" 1.009999999999999e-07
"out" 9.519237039459453e-01
"vin" 2.763355756877250e+00
"Vvin:p" -1.811432052931304e-03
"time" 1.019999999999999e-07
"out" 1.663169008675883e+00
"vin" 3.853169548885386e+00
"Vvin:p" -2.190000540209503e-03
"time" 1.029999999999999e-07
"out" 1.929864571958366e+00
"vin" 3.853169548885532e+00
"Vvin:p" -1.923304976927166e-03
"time" 1.039999999999999e-07
"out" 1.650620549774171e+00
"vin" 2.763355756877598e+00
"Vvin:p" -1.112735207103427e-03
"time" 1.049999999999999e-07
"out" 9.318222660515043e-01
"vin" 1.000000000000253e+00
"Vvin:p" -6.817773394874856e-05
"time" 1.059999999999999e-07
"out" 4.807629605406635e-02
"vin" -7.633557568772233e-01
"Vvin:p" 8.114320529312897e-04
"time" 1.069999999999999e-07
"out" -6.631690086758778e-01
"vin" -1.853169548885376e+00
"Vvin:p" 1.190000540209498e-03
"time" 1.079999999999999e-07
"out" -9.298645719583687e-01
"vin" -1.853169548885556e+00
"Vvin:p" 9.233049769271868e-04
"time" 1.089999999999999e-07
"out" -6.506205497741865e-01
"vin" -7.633557568776586e-01
"Vvin:p" 1.127352071034721e-04
"time" 1.099999999999998e-07
"out" 6.817773394847143e-02
"vin" 9.999999999996722e-01
"Vvin:p" -9.318222660512007e-04
"time" 1.109999999999998e-07
"out" 9.519237039459099e-01
"vin" 2.763355756877163e+00
"Vvin:p" -1.811432052931253e-03
"time" 1.119999999999998e-07
"out" 1.663169008675862e+00
"vin" 3.853169548885366e+00
"Vvin:p" -2.190000540209504e-03
"time" 1.129999999999998e-07
"out" 1.929864571958368e+00
"vin" 3.853169548885566e+00
"Vvin:p" -1.923304976927197e-03
"time" 1.139999999999998e-07
"out" 1.650620549774196e+00
"vin" 2.763355756877685e+00
"Vvin:p" -1.112735207103489e-03
"time" 1.149999999999998e-07
"out" 9.318222660515432e-01
"vin" 1.000000000000360e+00
"Vvin:p" -6.817773394881700e-05
"time" 1.159999999999998e-07
"out" 4.807629605410473e-02
"vin" -7.633557568771367e-01
"Vvin:p" 8.114320529312415e-04
"time" 1.169999999999998e-07
"out" -6.631690086758535e-01
"vin" -1.853169548885356e+00
"Vvin:p" 1.190000540209503e-03
"time" 1.179999999999998e-07
"out" -9.298645719583682e-01
"vin" -1.853169548885576e+00
"Vvin:p" 9.233049769272072e-04
"time" 1.189999999999998e-07
"out" -6.506205497742049e-01
"vin" -7.633557568777110e-01
"Vvin:p" 1.127352071035061e-04
"time" 1.199999999999998e-07
"out" 6.817773394843679e-02
"vin" 9.999999999996075e-01
"Vvin:p" -9.318222660511708e-04
"time" 1.209999999999998e-07
"out" 9.519237039458762e-01
"vin" 2.763355756877110e+00
"Vvin:p" -1.811432052931234e-03
"time" 1.219999999999998e-07
"out" 1.663169008675839e+00
"vin" 3.853169548885346e+00
"Vvin:p" -2.190000540209506e-03
"time" 1.229999999999998e-07
"out" 1.929864571958368e+00
"vin" 3.853169548885585e+00
"Vvin:p" -1.923304976927217e-03
"time" 1.239999999999998e-07
"out" 1.650620549774217e+00
"vin" 2.763355756877737e+00
"Vvin:p" -1.112735207103520e-03
"time" 1.249999999999998e-07
"out" 9.318222660515768e-01
"vin" 1.000000000000425e+00
"Vvin:p" -6.817773394884791e-05
"time" 1.259999999999998e-07
"out" 4.807629605413959e-02
"vin" -7.633557568770843e-01
"Vvin:p" 8.114320529312240e-04
"time" 1.269999999999998e-07
"out" -6.631690086758348e-01
"vin" -1.853169548885336e+00
"Vvin:p" 1.190000540209501e-03
"time" 1.279999999999998e-07
"out" -9.298645719583687e-01
"vin" -1.853169548885595e+00
"Vvin:p" 9.233049769272268e-04
"time" 1.289999999999998e-07
"out" -6.506205497742255e-01
"vin" -7.633557568777634e-01
"Vvin:p" 1.127352071035379e-04
"time" 1.299999999999998e-07
"out" 6.817773394840716e-02
"vin" 9.999999999995428e-01
"Vvin:p" -9.318222660511357e-04
"time" 1.309999999999998e-07
"out" 9.519237039458380e-01
"vin" 2.763355756877058e+00
"Vvin:p" -1.811432052931220e-03
"time" 1.319999999999998e-07
"out" 1.663169008675817e+00
"vin" 3.853169548885313e+00
"Vvin:p" -2.190000540209496e-03
"time" 1.329999999999997e-07
"out" 1.929864571958369e+00
"vin" 3.853169548885619e+00
"Vvin:p" -1.923304976927250e-03
"time" 1.339999999999997e-07
"out" 1.650620549774242e+00
"vin" 2.763355756877824e+00
"Vvin:p" -1.112735207103582e-03
"time" 1.349999999999997e-07
"out" 9.318222660516251e-01
"vin" 1.000000000000532e+00
"Vvin:p" -6.817773394890710e-05
"time" 1.359999999999997e-07
"out" 4.807629605418814e-02
"vin" -7.633557568769973e-01
"Vvin:p" 8.114320529311854e-04
"time" 1.369999999999997e-07
"out" -6.631690086758051e-01
"vin" -1.853169548885303e+00
"Vvin:p" 1.190000540209498e-03
"time" 1.379999999999997e-07
"out" -9.298645719583687e-01
"vin" -1.853169548885628e+00
"Vvin:p" 9.233049769272597e-04
"time" 1.389999999999997e-07
"out" -6.506205497742501e-01
"vin" -7.633557568778500e-01
"Vvin:p" 1.127352071035998e-04
"time" 1.399999999999997e-07
"out" 6.817773394835906e-02
"vin" 9.999999999994355e-01
"Vvin:p" -9.318222660510765e-04
"time" 1.409999999999997e-07
"out" 9.519237039457985e-01
"vin" 2.763355756876971e+00
"Vvin:p" -1.811432052931173e-03
"time" 1.419999999999997e-07
"out" 1.663169008675792e+00
"vin" 3.853169548885293e+00
"Vvin:p" -2.190000540209501e-03
"time" 1.429999999999997e-07
"out" 1.929864571958369e+00
"vin" 3.853169548885639e+00
"Vvin:p" -1.923304976927270e-03
"time" 1.439999999999997e-07
"out" 1.650620549774266e+00
"vin" 2.763355756877877e+00
"Vvin:p" -1.112735207103611e-03
"time" 1.449999999999997e-07
"out" 9.318222660516550e-01
"vin" 1.000000000000597e+00
"Vvin:p" -6.817773394894186e-05
"time" 1.459999999999997e-07
"out" 4.807629605421737e-02
"vin" -7.633557568769451e-01
"Vvin:p" 8.114320529311624e-04
"time" 1.469999999999997e-07
"out" -6.631690086757871e-01
"vin" -1.853169548885283e+00
"Vvin:p" 1.190000540209496e-03
"time" 1.479999999999997e-07
"out" -9.298645719583687e-01
"vin" -1.853169548885648e+00
"Vvin:p" 9.233049769272796e-04
"time" 1.489999999999997e-07
"out" -6.506205497742684e-01
"vin" -7.633557568779024e-01
"Vvin:p" 1.127352071036340e-04
"time" 1.499999999999997e-07
"out" 6.817773394832960e-02
"vin" 9.999999999993708e-01
"Vvin:p" -9.318222660510412e-04
"time" 1.509999999999997e-07
"out" 9.519237039457603e-01
"vin" 2.763355756876919e+00
"Vvin:p" -1.811432052931159e-03
"time" 1.519999999999997e-07
"out" 1.663169008675771e+00
"vin" 3.853169548885273e+00
"Vvin:p" -2.190000540209501e-03
"time" 1.529999999999997e-07
"out" 1.929864571958369e+00
"vin" 3.853169548885659e+00
"Vvin:p" -1.923304976927290e-03
"time" 1.539999999999997e-07
"out" 1.650620549774284e+00
"vin" 2.763355756877929e+00
"Vvin:p" -1.112735207103645e-03
"time" 1.549999999999997e-07
"out" 9.318222660516934e-01
"vin" 1.000000000000661e+00
"Vvin:p" -6.817773394896803e-05
"time" 1.559999999999996e-07
"out" 4.807629605425338e-02
"vin" -7.633557568768583e-01
"Vvin:p" 8.114320529311117e-04
"time" 1.569999999999996e-07
"out" -6.631690086757616e-01
"vin" -1.853169548885250e+00
"Vvin:p" 1.190000540209488e-03
"time" 1.579999999999996e-07
"out" -9.298645719583697e-01
"vin" -1.853169548885682e+00
"Vvin:p" 9.233049769273121e-04
"time" 1.589999999999996e-07
"out" -6.506205497742990e-01
"vin" -7.633557568779894e-01
"Vvin:p" 1.127352071036905e-04
"time" 1.599999999999996e-07
"out" 6.817773394829690e-02
"vin" 9.999999999993061e-01
"Vvin:p" -9.318222660510093e-04
"time" 1.609999999999996e-07
"out" 9.519237039457249e-01
"vin" 2.763355756876832e+00
"Vvin:p" -1.811432052931107e-03
"time" 1.619999999999996e-07
"out" 1.663169008675748e+00
"vin" 3.853169548885240e+00
"Vvin:p" -2.190000540209491e-03
"time" 1.629999999999996e-07
"out" 1.929864571958370e+00
"vin" 3.853169548885692e+00
"Vvin:p" -1.923304976927322e-03
"time" 1.639999999999996e-07
"out" 1.650620549774309e+00
"vin" 2.763355756877981e+00
"Vvin:p" -1.112735207103672e-03
"time" 1.649999999999996e-07
"out" 9.318222660517307e-01
"vin" 1.000000000000769e+00
"Vvin:p" -6.817773394903827e-05
"time" 1.659999999999996e-07
"out" 4.807629605428925e-02
"vin" -7.633557568768405e-01
"Vvin:p" 8.114320529311298e-04
"time" 1.669999999999996e-07
"out" -6.631690086757417e-01
"vin" -1.853169548885230e+00
"Vvin:p" 1.190000540209489e-03
"time" 1.679999999999996e-07
"out" -9.298645719583721e-01
"vin" -1.853169548885715e+00
"Vvin:p" 9.233049769273428e-04
"time" 1.689999999999996e-07
"out" -6.506205497743182e-01
"vin" -7.633557568780416e-01
"Vvin:p" 1.127352071037234e-04
"time" 1.699999999999996e-07
"out" 6.817773394825134e-02
"vin" 9.999999999991988e-01
"Vvin:p" -9.318222660509475e-04
"time" 1.709999999999996e-07
"out" 9.519237039456915e-01
"vin" 2.763355756876780e+00
"Vvin:p" -1.811432052931088e-03
"time" 1.719999999999996e-07
"out" 1.663169008675723e+00
"vin" 3.853169548885206e+00
"Vvin:p" -2.190000540209483e-03
"time" 1.729999999999996e-07
"out" 1.929864571958369e+00
"vin" 3.853169548885712e+00
"Vvin:p" -1.923304976927343e-03
"time" 1.739999999999996e-07
"out" 1.650620549774339e+00
"vin" 2.763355756878102e+00
"Vvin:p" -1.112735207103764e-03
"time" 1.749999999999996e-07
"out" 9.318222660517650e-01
"vin" 1.000000000000834e+00
"Vvin:p" -6.817773394906851e-05
"time" 1.759999999999996e-07
"out" 4.807629605433048e-02
"vin" -7.633557568767189e-01
"Vvin:p" 8.114320529310494e-04
"time" 1.769999999999996e-07
"out" -6.631690086757185e-01
"vin" -1.853169548885210e+00
"Vvin:p" 1.190000540209491e-03
"time" 1.779999999999996e-07
"out" -9.298645719583711e-01
"vin" -1.853169548885734e+00
"Vvin:p" 9.233049769273633e-04
"time" 1.789999999999996e-07
"out" -6.506205497743364e-01
"vin" -7.633557568780938e-01
"Vvin:p" 1.127352071037574e-04
"time" 1.799999999999995e-07
"out" 6.817773394822203e-02
"vin" 9.999999999991341e-01
"Vvin:p" -9.318222660509121e-04
"time" 1.809999999999995e-07
"out" 9.519237039456622e-01
"vin" 2.763355756876727e+00
"Vvin:p" -1.811432052931065e-03
"time" 1.819999999999995e-07
"out" 1.663169008675705e+00
"vin" 3.853169548885186e+00
"Vvin:p" -2.190000540209481e-03
"time" 1.829999999999995e-07
"out" 1.929864571958368e+00
"vin" 3.853169548885732e+00
"Vvin:p" -1.923304976927363e-03
"time" 1.839999999999995e-07
"out" 1.650620549774357e+00
"vin" 2.763355756878155e+00
"Vvin:p" -1.112735207103798e-03
"time" 1.849999999999995e-07
"out" 9.318222660517945e-01
"vin" 1.000000000000898e+00
"Vvin:p" -6.817773394910361e-05
"time" 1.859999999999995e-07
"out" 4.807629605435974e-02
"vin" -7.633557568766667e-01
"Vvin:p" 8.114320529310264e-04
"time" 1.869999999999995e-07
"out" -6.631690086757006e-01
"vin" -1.853169548885190e+00
"Vvin:p" 1.190000540209490e-03
"time" 1.879999999999995e-07
"out" -9.298645719583727e-01
"vin" -1.853169548885755e+00
"Vvin:p" 9.233049769273823e-04
"time" 1.889999999999995e-07
"out" -6.506205497743660e-01
"vin" -7.633557568781462e-01
"Vvin:p" 1.127352071037801e-04
"time" 1.899999999999995e-07
"out" 6.817773394819131e-02
"vin" 9.999999999990694e-01
"Vvin:p" -9.318222660508782e-04
"time" 1.909999999999995e-07
"out" 9.519237039456149e-01
"vin" 2.763355756876675e+00
"Vvin:p" -1.811432052931060e-03
"time" 1.919999999999995e-07
"out" 1.663169008675683e+00
"vin" 3.853169548885166e+00
"Vvin:p" -2.190000540209484e-03
"time" 1.929999999999995e-07
"out" 1.929864571958371e+00
"vin" 3.853169548885765e+00
"Vvin:p" -1.923304976927394e-03
"time" 1.939999999999995e-07
"out" 1.650620549774376e+00
"vin" 2.763355756878207e+00
"Vvin:p" -1.112735207103831e-03
"time" 1.949999999999995e-07
"out" 9.318222660518491e-01
"vin" 1.000000000001006e+00
"Vvin:p" -6.817773394915648e-05
"time" 1.959999999999995e-07
"out" 4.807629605440322e-02
"vin" -7.633557568766145e-01
"Vvin:p" 8.114320529310178e-04
"time" 1.969999999999995e-07
"out" -6.631690086756682e-01
"vin" -1.853169548885143e+00
"Vvin:p" 1.190000540209475e-03
"time" 1.979999999999995e-07
"out" -9.298645719583691e-01
"vin" -1.853169548885774e+00
"Vvin:p" 9.233049769274054e-04
"time" 1.989999999999995e-07
"out" -6.506205497743953e-01
"vin" -7.633557568782678e-01
"Vvin:p" 1.127352071038725e-04
"time" 1.999999999999995e-07
"out" 6.817773394813173e-02
"vin" 9.999999999989622e-01
"Vvin:p" -9.318222660508305e-04
"time" 2.009999999999995e-07
"out" 9.519237039455681e-01
"vin" 2.763355756876554e+00
"Vvin:p" -1.811432052930986e-03
"time" 2.019999999999995e-07
"out" 1.663169008675657e+00
"vin" 3.853169548885147e+00
"Vvin:p" -2.190000540209490e-03
"time" 2.029999999999994e-07
"out" 1.929864571958372e+00
"vin" 3.853169548885798e+00
"Vvin:p" -1.923304976927426e-03
"time" 2.039999999999994e-07
"out" 1.650620549774406e+00
"vin" 2.763355756878294e+00
"Vvin:p" -1.112735207103887e-03
"time" 2.049999999999994e-07
"out" 9.318222660518818e-01
"vin" 1.000000000001070e+00
"Vvin:p" -6.817773394918845e-05
"time" 2.059999999999994e-07
"out" 4.807629605445081e-02
"vin" -7.633557568765621e-01
"Vvin:p" 8.114320529310129e-04
"time" 2.069999999999994e-07
"out" -6.631690086756479e-01
"vin" -1.853169548885110e+00
"Vvin:p" 1.190000540209462e-03
"time" 2.079999999999994e-07
"out" -9.298645719583670e-01
"vin" -1.853169548885782e+00
"Vvin:p" 9.233049769274145e-04
"time" 2.089999999999994e-07
"out" -6.506205497744183e-01
"vin" -7.633557568783200e-01
"Vvin:p" 1.127352071039017e-04
"time" 2.099999999999994e-07
"out" 6.817773394811084e-02
"vin" 9.999999999988974e-01
"Vvin:p" -9.318222660507867e-04
"time" 2.109999999999994e-07
"out" 9.519237039455458e-01
"vin" 2.763355756876536e+00
"Vvin:p" -1.811432052930991e-03
"time" 2.119999999999994e-07
"out" 1.663169008675644e+00
"vin" 3.853169548885127e+00
"Vvin:p" -2.190000540209482e-03
"time" 2.129999999999994e-07
"out" 1.929864571958374e+00
"vin" 3.853169548885818e+00
"Vvin:p" -1.923304976927445e-03
"time" 2.139999999999994e-07
"out" 1.650620549774425e+00
"vin" 2.763355756878346e+00
"Vvin:p" -1.112735207103921e-03
"time" 2.149999999999994e-07
"out" 9.318222660519112e-01
"vin" 1.000000000001135e+00
"Vvin:p" -6.817773394922368e-05
"time" 2.159999999999994e-07
"out" 4.807629605448005e-02
"vin" -7.633557568765097e-01
"Vvin:p" 8.114320529309897e-04
"time" 2.169999999999994e-07
"out" -6.631690086756193e-01
"vin" -1.853169548885090e+00
"Vvin:p" 1.190000540209471e-03
"time" 2.179999999999994e-07
"out" -9.298645719583691e-01
"vin" -1.853169548885828e+00
"Vvin:p" 9.233049769274586e-04
"time" 2.189999999999994e-07
"out" -6.506205497744382e-01
"vin" -7.633557568783722e-01
"Vvin:p" 1.127352071039341e-04
"time" 2.199999999999994e-07
"out" 6.817773394806703e-02
"vin" 9.999999999987474e-01
"Vvin:p" -9.318222660506804e-04
"time" 2.209999999999994e-07
"out" 9.519237039455100e-01
"vin" 2.763355756876483e+00
"Vvin:p" -1.811432052930974e-03
"time" 2.219999999999994e-07
"out" 1.663169008675615e+00
"vin" 3.853169548885080e+00
"Vvin:p" -2.190000540209465e-03
"time" 2.229999999999994e-07
"out" 1.929864571958370e+00
"vin" 3.853169548885838e+00
"Vvin:p" -1.923304976927468e-03
"time" 2.239999999999994e-07
"out" 1.650620549774443e+00
"vin" 2.763355756878398e+00
"Vvin:p" -1.112735207103956e-03
"time" 2.249999999999994e-07
"out" 9.318222660519406e-01
"vin" 1.000000000001199e+00
"Vvin:p" -6.817773394925885e-05
"time" 2.259999999999994e-07
"out" 4.807629605452085e-02
"vin" -7.633557568763885e-01
"Vvin:p" 8.114320529309093e-04
"time" 2.269999999999993e-07
"out" -6.631690086755911e-01
"vin" -1.853169548885070e+00
"Vvin:p" 1.190000540209479e-03
"time" 2.279999999999993e-07
"out" -9.298645719583684e-01
"vin" -1.853169548885848e+00
"Vvin:p" 9.233049769274799e-04
"time" 2.289999999999993e-07
"out" -6.506205497744565e-01
"vin" -7.633557568784246e-01
"Vvin:p" 1.127352071039681e-04
"time" 2.299999999999993e-07
"out" 6.817773394803764e-02
"vin" 9.999999999986828e-01
"Vvin:p" -9.318222660506452e-04
"time" 2.309999999999993e-07
"out" 9.519237039454809e-01
"vin" 2.763355756876431e+00
"Vvin:p" -1.811432052930950e-03
"time" 2.319999999999993e-07
"out" 1.663169008675597e+00
"vin" 3.853169548885060e+00
"Vvin:p" -2.190000540209463e-03
"time" 2.329999999999993e-07
"out" 1.929864571958371e+00
"vin" 3.853169548885858e+00
"Vvin:p" -1.923304976927487e-03
"time" 2.339999999999993e-07
"out" 1.650620549774461e+00
"vin" 2.763355756878451e+00
"Vvin:p" -1.112735207103990e-03
"time" 2.349999999999993e-07
"out" 9.318222660519699e-01
"vin" 1.000000000001264e+00
"Vvin:p" -6.817773394929435e-05
"time" 2.359999999999993e-07
"out" 4.807629605455008e-02
"vin" -7.633557568763363e-01
"Vvin:p" 8.114320529308863e-04
"time" 2.369999999999993e-07
"out" -6.631690086755730e-01
"vin" -1.853169548885050e+00
"Vvin:p" 1.190000540209477e-03
"time" 2.379999999999993e-07
"out" -9.298645719583695e-01
"vin" -1.853169548885868e+00
"Vvin:p" 9.233049769274982e-04
"time" 2.389999999999993e-07
"out" -6.506205497744675e-01
"vin" -7.633557568784770e-01